# vtk DataFile Version 3.0
vtk output
ASCII
DATASET UNSTRUCTURED_GRID
POINTS 8 float
0 0 0 1 0 0 1 1 0 
0 1 0 0.5 0 0 1 0.5 0 
0.5 1 0 0 0.5 0 
CELLS 1 9
8 0 1 2 3 4 5 6 7 

CELL_TYPES 1
23

POINT_DATA 8
SCALARS temperature double
LOOKUP_TABLE default
0 0 0 0 20 0 0 0 
